# vtk DataFile Version 3.0
MOAB 5.1.1
ASCII
DATASET UNSTRUCTURED_GRID
POINTS 216 double
-10 -10 -10
-6 -10 -10
-2 -10 -10
2 -10 -10
6 -10 -10
10 -10 -10
-10 -6 -10
-6 -6 -10
-2 -6 -10
2 -6 -10
6 -6 -10
10 -6 -10
-10 -2 -10
-6 -2 -10
-2 -2 -10
2 -2 -10
6 -2 -10
10 -2 -10
-10 2 -10
-6 2 -10
-2 2 -10
2 2 -10
6 2 -10
10 2 -10
-10 6 -10
-6 6 -10
-2 6 -10
2 6 -10
6 6 -10
10 6 -10
-10 10 -10
-6 10 -10
-2 10 -10
2 10 -10
6 10 -10
10 10 -10
-10 -10 -6
-6 -10 -6
-2 -10 -6
2 -10 -6
6 -10 -6
10 -10 -6
-10 -6 -6
-6 -6 -6
-2 -6 -6
2 -6 -6
6 -6 -6
10 -6 -6
-10 -2 -6
-6 -2 -6
-2 -2 -6
2 -2 -6
6 -2 -6
10 -2 -6
-10 2 -6
-6 2 -6
-2 2 -6
2 2 -6
6 2 -6
10 2 -6
-10 6 -6
-6 6 -6
-2 6 -6
2 6 -6
6 6 -6
10 6 -6
-10 10 -6
-6 10 -6
-2 10 -6
2 10 -6
6 10 -6
10 10 -6
-10 -10 -2
-6 -10 -2
-2 -10 -2
2 -10 -2
6 -10 -2
10 -10 -2
-10 -6 -2
-6 -6 -2
-2 -6 -2
2 -6 -2
6 -6 -2
10 -6 -2
-10 -2 -2
-6 -2 -2
-2 -2 -2
2 -2 -2
6 -2 -2
10 -2 -2
-10 2 -2
-6 2 -2
-2 2 -2
2 2 -2
6 2 -2
10 2 -2
-10 6 -2
-6 6 -2
-2 6 -2
2 6 -2
6 6 -2
10 6 -2
-10 10 -2
-6 10 -2
-2 10 -2
2 10 -2
6 10 -2
10 10 -2
-10 -10 2
-6 -10 2
-2 -10 2
2 -10 2
6 -10 2
10 -10 2
-10 -6 2
-6 -6 2
-2 -6 2
2 -6 2
6 -6 2
10 -6 2
-10 -2 2
-6 -2 2
-2 -2 2
2 -2 2
6 -2 2
10 -2 2
-10 2 2
-6 2 2
-2 2 2
2 2 2
6 2 2
10 2 2
-10 6 2
-6 6 2
-2 6 2
2 6 2
6 6 2
10 6 2
-10 10 2
-6 10 2
-2 10 2
2 10 2
6 10 2
10 10 2
-10 -10 6
-6 -10 6
-2 -10 6
2 -10 6
6 -10 6
10 -10 6
-10 -6 6
-6 -6 6
-2 -6 6
2 -6 6
6 -6 6
10 -6 6
-10 -2 6
-6 -2 6
-2 -2 6
2 -2 6
6 -2 6
10 -2 6
-10 2 6
-6 2 6
-2 2 6
2 2 6
6 2 6
10 2 6
-10 6 6
-6 6 6
-2 6 6
2 6 6
6 6 6
10 6 6
-10 10 6
-6 10 6
-2 10 6
2 10 6
6 10 6
10 10 6
-10 -10 10
-6 -10 10
-2 -10 10
2 -10 10
6 -10 10
10 -10 10
-10 -6 10
-6 -6 10
-2 -6 10
2 -6 10
6 -6 10
10 -6 10
-10 -2 10
-6 -2 10
-2 -2 10
2 -2 10
6 -2 10
10 -2 10
-10 2 10
-6 2 10
-2 2 10
2 2 10
6 2 10
10 2 10
-10 6 10
-6 6 10
-2 6 10
2 6 10
6 6 10
10 6 10
-10 10 10
-6 10 10
-2 10 10
2 10 10
6 10 10
10 10 10
CELLS 125 1125
8 0 1 7 6 36 37 43 42
8 1 2 8 7 37 38 44 43
8 2 3 9 8 38 39 45 44
8 3 4 10 9 39 40 46 45
8 4 5 11 10 40 41 47 46
8 6 7 13 12 42 43 49 48
8 7 8 14 13 43 44 50 49
8 8 9 15 14 44 45 51 50
8 9 10 16 15 45 46 52 51
8 10 11 17 16 46 47 53 52
8 12 13 19 18 48 49 55 54
8 13 14 20 19 49 50 56 55
8 14 15 21 20 50 51 57 56
8 15 16 22 21 51 52 58 57
8 16 17 23 22 52 53 59 58
8 18 19 25 24 54 55 61 60
8 19 20 26 25 55 56 62 61
8 20 21 27 26 56 57 63 62
8 21 22 28 27 57 58 64 63
8 22 23 29 28 58 59 65 64
8 24 25 31 30 60 61 67 66
8 25 26 32 31 61 62 68 67
8 26 27 33 32 62 63 69 68
8 27 28 34 33 63 64 70 69
8 28 29 35 34 64 65 71 70
8 36 37 43 42 72 73 79 78
8 37 38 44 43 73 74 80 79
8 38 39 45 44 74 75 81 80
8 39 40 46 45 75 76 82 81
8 40 41 47 46 76 77 83 82
8 42 43 49 48 78 79 85 84
8 43 44 50 49 79 80 86 85
8 44 45 51 50 80 81 87 86
8 45 46 52 51 81 82 88 87
8 46 47 53 52 82 83 89 88
8 48 49 55 54 84 85 91 90
8 49 50 56 55 85 86 92 91
8 50 51 57 56 86 87 93 92
8 51 52 58 57 87 88 94 93
8 52 53 59 58 88 89 95 94
8 54 55 61 60 90 91 97 96
8 55 56 62 61 91 92 98 97
8 56 57 63 62 92 93 99 98
8 57 58 64 63 93 94 100 99
8 58 59 65 64 94 95 101 100
8 60 61 67 66 96 97 103 102
8 61 62 68 67 97 98 104 103
8 62 63 69 68 98 99 105 104
8 63 64 70 69 99 100 106 105
8 64 65 71 70 100 101 107 106
8 72 73 79 78 108 109 115 114
8 73 74 80 79 109 110 116 115
8 74 75 81 80 110 111 117 116
8 75 76 82 81 111 112 118 117
8 76 77 83 82 112 113 119 118
8 78 79 85 84 114 115 121 120
8 79 80 86 85 115 116 122 121
8 80 81 87 86 116 117 123 122
8 81 82 88 87 117 118 124 123
8 82 83 89 88 118 119 125 124
8 84 85 91 90 120 121 127 126
8 85 86 92 91 121 122 128 127
8 86 87 93 92 122 123 129 128
8 87 88 94 93 123 124 130 129
8 88 89 95 94 124 125 131 130
8 90 91 97 96 126 127 133 132
8 91 92 98 97 127 128 134 133
8 92 93 99 98 128 129 135 134
8 93 94 100 99 129 130 136 135
8 94 95 101 100 130 131 137 136
8 96 97 103 102 132 133 139 138
8 97 98 104 103 133 134 140 139
8 98 99 105 104 134 135 141 140
8 99 100 106 105 135 136 142 141
8 100 101 107 106 136 137 143 142
8 108 109 115 114 144 145 151 150
8 109 110 116 115 145 146 152 151
8 110 111 117 116 146 147 153 152
8 111 112 118 117 147 148 154 153
8 112 113 119 118 148 149 155 154
8 114 115 121 120 150 151 157 156
8 115 116 122 121 151 152 158 157
8 116 117 123 122 152 153 159 158
8 117 118 124 123 153 154 160 159
8 118 119 125 124 154 155 161 160
8 120 121 127 126 156 157 163 162
8 121 122 128 127 157 158 164 163
8 122 123 129 128 158 159 165 164
8 123 124 130 129 159 160 166 165
8 124 125 131 130 160 161 167 166
8 126 127 133 132 162 163 169 168
8 127 128 134 133 163 164 170 169
8 128 129 135 134 164 165 171 170
8 129 130 136 135 165 166 172 171
8 130 131 137 136 166 167 173 172
8 132 133 139 138 168 169 175 174
8 133 134 140 139 169 170 176 175
8 134 135 141 140 170 171 177 176
8 135 136 142 141 171 172 178 177
8 136 137 143 142 172 173 179 178
8 144 145 151 150 180 181 187 186
8 145 146 152 151 181 182 188 187
8 146 147 153 152 182 183 189 188
8 147 148 154 153 183 184 190 189
8 148 149 155 154 184 185 191 190
8 150 151 157 156 186 187 193 192
8 151 152 158 157 187 188 194 193
8 152 153 159 158 188 189 195 194
8 153 154 160 159 189 190 196 195
8 154 155 161 160 190 191 197 196
8 156 157 163 162 192 193 199 198
8 157 158 164 163 193 194 200 199
8 158 159 165 164 194 195 201 200
8 159 160 166 165 195 196 202 201
8 160 161 167 166 196 197 203 202
8 162 163 169 168 198 199 205 204
8 163 164 170 169 199 200 206 205
8 164 165 171 170 200 201 207 206
8 165 166 172 171 201 202 208 207
8 166 167 173 172 202 203 209 208
8 168 169 175 174 204 205 211 210
8 169 170 176 175 205 206 212 211
8 170 171 177 176 206 207 213 212
8 171 172 178 177 207 208 214 213
8 172 173 179 178 208 209 215 214
CELL_TYPES 125
12
12
12
12
12
12
12
12
12
12
12
12
12
12
12
12
12
12
12
12
12
12
12
12
12
12
12
12
12
12
12
12
12
12
12
12
12
12
12
12
12
12
12
12
12
12
12
12
12
12
12
12
12
12
12
12
12
12
12
12
12
12
12
12
12
12
12
12
12
12
12
12
12
12
12
12
12
12
12
12
12
12
12
12
12
12
12
12
12
12
12
12
12
12
12
12
12
12
12
12
12
12
12
12
12
12
12
12
12
12
12
12
12
12
12
12
12
12
12
12
12
12
12
12
12
POINT_DATA 216
SCALARS GLOBAL_ID int 1
LOOKUP_TABLE default
1 
2 
3 
4 
5 
6 
2 
3 
4 
5 
6 
7 
3 
4 
5 
6 
7 
8 
4 
5 
6 
7 
8 
9 
5 
6 
7 
8 
9 
10 
6 
7 
8 
9 
10 
11 
2 
3 
4 
5 
6 
7 
3 
4 
5 
6 
7 
8 
4 
5 
6 
7 
8 
9 
5 
6 
7 
8 
9 
10 
6 
7 
8 
9 
10 
11 
7 
8 
9 
10 
11 
12 
3 
4 
5 
6 
7 
8 
4 
5 
6 
7 
8 
9 
5 
6 
7 
8 
9 
10 
6 
7 
8 
9 
10 
11 
7 
8 
9 
10 
11 
12 
8 
9 
10 
11 
12 
13 
4 
5 
6 
7 
8 
9 
5 
6 
7 
8 
9 
10 
6 
7 
8 
9 
10 
11 
7 
8 
9 
10 
11 
12 
8 
9 
10 
11 
12 
13 
9 
10 
11 
12 
13 
14 
5 
6 
7 
8 
9 
10 
6 
7 
8 
9 
10 
11 
7 
8 
9 
10 
11 
12 
8 
9 
10 
11 
12 
13 
9 
10 
11 
12 
13 
14 
10 
11 
12 
13 
14 
15 
6 
7 
8 
9 
10 
11 
7 
8 
9 
10 
11 
12 
8 
9 
10 
11 
12 
13 
9 
10 
11 
12 
13 
14 
10 
11 
12 
13 
14 
15 
11 
12 
13 
14 
15 
16 
CELL_DATA 125
SCALARS dname double 1
LOOKUP_TABLE default
0 
10 
20 
30 
40 
0 
10 
20 
30 
40 
0 
10 
20 
30 
40 
0 
10 
20 
30 
40 
0 
10 
20 
30 
40 
0 
10 
20 
30 
40 
0 
10 
20 
30 
40 
0 
10 
20 
30 
40 
0 
10 
20 
30 
40 
0 
10 
20 
30 
40 
0 
10 
20 
30 
40 
0 
10 
20 
30 
40 
0 
10 
20 
30 
40 
0 
10 
20 
30 
40 
0 
10 
20 
30 
40 
0 
10 
20 
30 
40 
0 
10 
20 
30 
40 
0 
10 
20 
30 
40 
0 
10 
20 
30 
40 
0 
10 
20 
30 
40 
0 
10 
20 
30 
40 
0 
10 
20 
30 
40 
0 
10 
20 
30 
40 
0 
10 
20 
30 
40 
0 
10 
20 
30 
40 
SCALARS idx int 1
LOOKUP_TABLE default
0 
25 
50 
75 
100 
5 
30 
55 
80 
105 
10 
35 
60 
85 
110 
15 
40 
65 
90 
115 
20 
45 
70 
95 
120 
1 
26 
51 
76 
101 
6 
31 
56 
81 
106 
11 
36 
61 
86 
111 
16 
41 
66 
91 
116 
21 
46 
71 
96 
121 
2 
27 
52 
77 
102 
7 
32 
57 
82 
107 
12 
37 
62 
87 
112 
17 
42 
67 
92 
117 
22 
47 
72 
97 
122 
3 
28 
53 
78 
103 
8 
33 
58 
83 
108 
13 
38 
63 
88 
113 
18 
43 
68 
93 
118 
23 
48 
73 
98 
123 
4 
29 
54 
79 
104 
9 
34 
59 
84 
109 
14 
39 
64 
89 
114 
19 
44 
69 
94 
119 
24 
49 
74 
99 
124 
